<?xml version="1.0"?>
<VTKFile type="UnstructuredGrid" version="0.1" byte_order="LittleEndian">
  <UnstructuredGrid>
    <Piece NumberOfPoints="665" NumberOfCells="973">
      <Points>
        <DataArray type="Float32" Name="vertices" NumberOfComponents="3" format="ascii">
47.0 184.0 0.0 52.7959 184.0 0.0 58.5918 184.0 0.0 64.3878 184.0 0.0 70.1837 184.0 0.0 75.9796 184.0 0.0 81.7754 184.0 0.0 86.987 183.416 0.0 92.0212 182.654 0.0 96.175 181.012 0.0 99.98 179.021 0.0 103.807 177.052 0.0 105.86 173.309 0.0 108.324 169.977 0.0 110.013 165.87 0.0 111.001 161.062 0.0 111.007 155.258 0.0 109.966 150.504 0.0 107.876 146.798 0.0 106.044 142.834 0.0 103.055 140.027 0.0 100.008 137.277 0.0 95.3946 136.095 0.0 91.7986 133.895 0.0 86.9517 132.946 0.0 81.102 133.0 0.0 75.3061 133.0 0.0 69.5117 132.998 0.0 65.9942 130.72 0.0 66.0 124.918 0.0 66.0 119.122 0.0 66.0 113.327 0.0 65.9796 107.551 0.0 61.7351 106.0 0.0 55.9388 106.0 0.0 50.1439 106.001 0.0 46.9958 108.649 0.0 47.0 114.449 0.0 47.0 120.245 0.0 47.0 126.041 0.0 47.0 131.837 0.0 47.0 137.633 0.0 47.0 143.429 0.0 47.0 149.224 0.0 47.0 155.02 0.0 47.0 160.816 0.0 47.0 166.612 0.0 47.0 172.408 0.0 47.0 178.204 0.0 120.0 165.0 0.0 128.625 165.0 0.0 137.306 165.056 0.0 139.938 159.063 0.0 143.091 153.591 0.0 144.98 146.855 0.0 147.776 141.026 0.0 149.89 134.515 0.0 153.0 129.0 0.0 156.014 126.615 0.0 157.953 133.297 0.0 159.938 139.937 0.0 162.5 146.0 0.0 165.062 152.063 0.0 167.047 158.703 0.0 169.261 165.114 0.0 178.0 165.0 0.0 186.818 164.977 0.0 184.79 158.96 0.0 181.958 153.167 0.0 180.091 146.409 0.0 176.93 140.945 0.0 174.989 134.261 0.0 172.654 127.971 0.0 170.0 122.0 0.0 168.1 115.275 0.0 164.906 109.844 0.0 162.99 103.135 0.0 160.509 96.991 0.0 157.893 90.9816 0.0 153.135 87.1148 0.0 147.978 83.6471 0.0 141.0 82.0 0.0 132.369 81.9939 0.0 130.0 88.2499 0.0 132.874 94.0014 0.0 140.407 95.0929 0.0 145.079 99.0461 0.0 145.919 104.671 0.0 143.644 111.019 0.0 141.0 117.0 0.0 138.363 122.988 0.0 136.046 129.296 0.0 132.98 134.855 0.0 130.491 140.991 0.0 128.042 147.167 0.0 125.219 152.969 0.0 123.108 159.483 0.0 191.0 106.0 0.0 192.923 111.481 0.0 194.918 116.891 0.0 196.962 122.25 0.0 198.897 127.72 0.0 201.015 133.006 0.0 202.92 138.506 0.0 204.924 143.906 0.0 207.207 149.027 0.0 208.897 154.741 0.0 211.031 160.012 0.0 212.916 165.531 0.0 214.93 170.921 0.0 217.229 176.026 0.0 218.9 181.76 0.0 224.064 184.0 0.0 231.468 184.0 0.0 238.872 184.0 0.0 244.251 181.974 0.0 245.901 176.221 0.0 248.061 170.976 0.0 250.497 166.007 0.0 251.947 160.053 0.0 254.266 154.968 0.0 255.903 149.201 0.0 258.078 143.972 0.0 260.522 139.011 0.0 261.956 133.041 0.0 264.29 127.971 0.0 266.762 123.039 0.0 268.097 116.969 0.0 270.547 112.015 0.0 271.957 106.036 0.0 266.66 106.0 0.0 259.255 106.0 0.0 253.007 107.156 0.0 250.878 112.431 0.0 248.994 117.951 0.0 243.638 120.0 0.0 236.234 120.0 0.0 228.83 120.0 0.0 221.426 120.0 0.0 214.998 119.023 0.0 212.897 113.72 0.0 210.961 108.252 0.0 205.808 106.0 0.0 198.404 106.0 0.0 284.0 184.0 0.0 297.261 184.0 0.0 308.878 182.357 0.0 312.899 173.116 0.0 317.032 163.988 0.0 320.943 154.638 0.0 324.871 145.306 0.0 331.03 147.796 0.0 335.052 157.035 0.0 339.125 166.222 0.0 343.075 175.534 0.0 347.875 183.995 0.0 361.13 184.0 0.0 370.998 180.607 0.0 371.0 167.348 0.0 371.0 154.087 0.0 371.0 140.826 0.0 371.0 127.565 0.0 371.0 114.304 0.0 366.044 106.0 0.0 352.928 106.146 0.0 353.0 119.478 0.0 353.0 132.739 0.0 353.0 146.0 0.0 352.999 159.26 0.0 348.876 157.602 0.0 344.961 148.256 0.0 340.972 138.984 0.0 336.88 129.815 0.0 332.417 121.018 0.0 321.087 122.914 0.0 316.933 132.02 0.0 313.066 141.414 0.0 309.128 150.737 0.0 305.072 159.942 0.0 302.0 155.87 0.0 302.0 142.609 0.0 302.0 129.348 0.0 302.0 116.087 0.0 298.825 106.001 0.0 285.585 106.019 0.0 284.0 117.696 0.0 284.0 130.957 0.0 284.0 144.217 0.0 284.0 157.478 0.0 284.0 170.739 0.0 387.0 152.0 0.0 390.078 160.522 0.0 393.183 169.017 0.0 398.731 175.069 0.0 405.272 180.128 0.0 414.0 183.0 0.0 422.982 185.618 0.0 434.2 186.0 0.0 444.887 185.087 0.0 453.27 181.87 0.0 459.0 176.0 0.0 458.979 164.21 0.0 451.735 167.935 0.0 443.19 170.99 0.0 432.6 172.0 0.0 422.0 171.0 0.0 415.026 166.374 0.0 410.067 159.733 0.0 406.958 151.242 0.0 407.023 139.623 0.0 410.0 131.0 0.0 414.623 124.023 0.0 422.029 119.829 0.0 431.8 118.0 0.0 442.374 119.026 0.0 444.0 129.0 0.0 439.4 136.0 0.0 431.001 139.201 0.0 432.809 148.991 0.0 444.4 149.0 0.0 456.0 149.0 0.0 462.0 143.4 0.0 462.0 131.8 0.0 462.0 120.2 0.0 459.99 110.61 0.0 452.0 107.0 0.0 442.377 105.023 0.0 431.8 104.0 0.0 421.242 105.042 0.0 411.485 106.885 0.0 404.0 111.0 0.0 397.378 115.978 0.0 392.831 123.031 0.0 388.964 130.764 0.0 386.992 140.392 0.0 67.0 169.0 0.0 68.7273 169.0 0.0 70.4545 169.0 0.0 72.1818 169.0 0.0 73.9091 169.0 0.0 75.6364 169.0 0.0 77.3636 169.0 0.0 79.0909 169.001 0.0 80.8182 168.978 0.0 82.5455 168.452 0.0 84.273 168.073 0.0 86.0 167.0 0.0 87.6988 165.276 0.0 88.9883 163.546 0.0 90.0863 161.818 0.0 89.9953 160.091 0.0 90.006 158.364 0.0 90.077 156.636 0.0 88.9474 154.909 0.0 89.0746 153.182 0.0 87.4364 151.449 0.0 85.7259 149.685 0.0 84.0 149.0 0.0 82.2727 148.236 0.0 80.5455 148.028 0.0 78.8182 148.002 0.0 77.0909 148.0 0.0 75.3636 148.0 0.0 73.6363 148.0 0.0 71.909 148.0 0.0 70.1831 148.001 0.0 68.4767 148.022 0.0 66.9206 148.193 0.0 67.0 150.0 0.0 67.0009 151.728 0.0 67.0001 153.455 0.0 67.0 155.182 0.0 67.0 156.909 0.0 67.0 158.636 0.0 67.0 160.364 0.0 67.0 162.091 0.0 67.0 163.818 0.0 67.0 165.545 0.0 67.0 167.273 0.0 222.0 136.0 0.0 223.033 137.86 0.0 223.749 139.721 0.0 223.872 141.581 0.0 225.128 143.442 0.0 225.275 145.302 0.0 225.947 147.163 0.0 227.015 149.023 0.0 226.935 150.884 0.0 228.08 152.744 0.0 228.621 154.605 0.0 228.879 156.465 0.0 230.124 158.326 0.0 230.168 160.186 0.0 231.025 162.047 0.0 232.016 163.886 0.0 231.912 164.311 0.0 233.109 162.381 0.0 233.487 160.512 0.0 233.898 158.651 0.0 235.099 156.791 0.0 235.051 154.93 0.0 236.023 153.07 0.0 236.823 151.209 0.0 236.875 149.349 0.0 238.124 147.488 0.0 238.352 145.628 0.0 238.927 143.767 0.0 240.054 141.907 0.0 239.971 140.047 0.0 241.059 138.187 0.0 241.685 136.348 0.0 241.516 134.924 0.0 239.609 134.994 0.0 237.744 135.0 0.0 235.884 135.0 0.0 234.023 135.0 0.0 232.163 135.0 0.0 230.302 135.0 0.0 228.442 135.0 0.0 226.581 135.0 0.0 224.719 134.998 0.0 222.848 134.987 0.0 230.819109983 163.818338678 0.0 219.69512097 133.209107683 0.0 230.038394922 167.0087608 0.0 67.2380001342 143.915586221 0.0 245.436555023 135.180737852 0.0 74.49995 143.346897584 0.0 81.9694226438 143.47916697 0.0 62.3477557413 154.318230614 0.0 62.3477057413 162.9545 0.0 67.86365 173.653102416 0.0 83.0988197626 173.368102416 0.0 91.8345873011 154.25346775 0.0 94.6930942587 160.709358843 0.0 240.373929879 129.821811146 0.0 225.655387718 129.983034795 0.0 221.284652338 144.681557315 0.0 243.433780956 140.824329936 0.0 223.500896042 149.804156466 0.0 238.908032219 155.761636192 0.0 240.420399203 150.378845569 0.0 226.594895084 159.340004632 0.0 69.2994078661 145.533796323 0.0 77.9586397086 144.468923155 0.0 72.77265 145.432999113 0.0 86.6260364826 144.900294219 0.0 64.4333673604 156.0455 0.0 62.0924970322 149.310392394 0.0 64.4334018824 152.59031084 0.0 64.433444953 161.2275 0.0 64.433444953 164.6815 0.0 69.5909 171.566991607 0.0 83.9619568722 170.781764174 0.0 76.5 173.65283303 0.0 79.9971923236 172.191938505 0.0 92.4965185257 159.24296369 0.0 238.667540557 132.21210659 0.0 231.2325 129.986728654 0.0 227.5115 132.234457357 0.0 223.799732775 132.231452486 0.0 219.029188723 140.468660599 0.0 238.332822217 162.464778651 0.0 241.724514197 146.98537916 0.0 227.672511438 162.554961458 0.0 223.337228654 155.131877646 0.0 84.1917352862 146.231917533 0.0 63.5364862172 168.1365 0.0 73.04545 172.462705184 0.0 234.9535 131.287408872 0.0 236.434334767 160.187031483 0.0 226.082477394 155.9050112 0.0 93.0039258353 167.884731006 0.0 235.674633548 165.308418579 0.0 92.3455577556 164.466413782 0.0 92.5894138109 148.218663529 0.0 70.7109671648 141.61353768 0.0 60.5296099443 158.636354781 0.0 96.0980023128 156.226517521 0.0 90.059508594 174.253892687 0.0 89.3548668121 168.606843979 0.0 220.540057593 127.651230985 0.0 149.067088442 120.932911558 0.0 78.0110421781 138.415601382 0.0 247.808151225 151.270651388 0.0 220.142565095 163.290831723 0.0 72.882061375 178.54574424 0.0 241.774471666 168.346212837 0.0 97.7092886943 165.205918392 0.0 347.806384696 166.217241494 0.0 64.0618079186 137.558557626 0.0 90.5255004905 140.014851744 0.0 97.2517253473 143.393990315 0.0 54.4270413172 163.747572325 0.0 54.6253841662 153.608553895 0.0 102.565650825 152.235101397 0.0 99.0499180421 172.00826015 0.0 254.346245503 126.465576924 0.0 294.297752196 164.875522901 0.0 252.69001193 138.235138209 0.0 215.505886807 150.222403085 0.0 210.400233888 128.952887649 0.0 56.3619005526 117.347 0.0 56.3595200282 128.939 0.0 137.257044857 88.2173984275 0.0 138.97526858 140.85973142 0.0 147.204980849 91.7962088625 0.0 153.153203243 100.715501995 0.0 204.110116571 116.454299539 0.0 158.56778173 117.22624409 0.0 144.843305217 128.034694783 0.0 168.465719258 139.906303935 0.0 164.376376935 128.074924487 0.0 171.919613945 147.489919257 0.0 55.6939500009 175.306 0.0 133.630907304 153.474092696 0.0 331.349937423 138.142512013 0.0 84.073527902 138.029513393 0.0 80.0096052623 178.381884303 0.0 211.089263038 138.54614905 0.0 245.193586102 161.561877704 0.0 235.195839875 173.912909596 0.0 55.5437106229 140.531 0.0 98.1146044052 148.892874914 0.0 258.294939413 118.043942365 0.0 53.0423489628 111.789389405 0.0 329.422236136 142.910669534 0.0 336.04410556 143.438633168 0.0 239.993688104 177.639857965 0.0 59.3273596069 111.805549599 0.0 342.9665 143.62 0.0 337.687140837 150.392902484 0.0 234.724671427 179.471167597 0.0 226.963789542 176.014185476 0.0 262.9575 112.063675586 0.0 256.904024726 111.795980785 0.0 239.936 124.222996733 0.0 232.532 124.39176073 0.0 86.0455717419 178.004056605 0.0 55.3869057004 158.694900272 0.0 102.693079 159.677347381 0.0 102.96646687 167.
[...]
      <PointData>
        <DataArray type="Float32" Name="pfield1" format="ascii">
1 1 3 3 3 0 0 0 3 3 3 0 0 0 2 2 2 1 1 1 2 2 2 1 1 1 0 0 0 2 2 2 2 0 0 0 0 0 1 1 1 3 3 3 0 0 0 0 1 1 1 0 0 0 2 2 2 1 1 1 2 2 2 0 0 0 1 1 1 0 0 0 0 2 2 2 1 1 1 2 2 2 1 1 1 1 0 0 0 0 0 2 2 2 0 1 1 0 0 2 2 2 1 1 1 3 3 3 1 1 1 2 2 2 3 3 3 1 1 1 2 2 2 0 0 0 1 1 1 1 1 0 0 0 2 2 2 0 0 0 1 1 1 0 0 2 2 2 1 1 1 3 3 3 1 1 3 3 3 2 0 0 1 1 2 2 2 1 0 0 2 2 2 2 0 0 2 2 0 0 0 1 0 0 2 2 2 1 1 0 1 1 3 3 3 1 1 1 2 2 1 1 1 1 0 0 2 2 2 0 0 0 0 2 2 3 3 3 3 1 1 1 1 0 0 3 3 3 1 1 1 2 2 2 2 1 1 1 2 2 2 1 1 1 2 2 2 1 1 1 2 2 2 0 0 0 2 2 2 0 0 0 2 2 2 1 1 1 0 0 0 2 2 2 3 3 3 3 1 3 3 3 2 2 2 0 0 0 1 1 1 2 2 2 0 0 0 1 1 1 2 2 2 0 0 0 0 1 1 1 3 3 3 3 1 1 1 2 2 2 2 3 0 3 0 1 3 2 2 2 3 1 2 0 1 3 0 2 1 0 2 0 2 1 0 2 2 2 1 0 3 3 1 2 2 1 2 3 1 2 2 3 2 0 2 0 2 1 2 1 1 1 1 0 1 0 0 2 0 3 2 0 0 1 2 1 3 1 1 0 0 1 2 0 3 1 0 0 3 0 3 1 2 1 1 2 2 1 2 2 2 2 1 2 3 0 2 1 0 1 1 0 3 1 1 0 1 2 3 2 2 3 2 2 1 0 2 2 0 0 2 0 2 0 2 1 2 0 2 1 3 0 2 1 0 1 1 3 3 2 2 0 0 0 0 0 0 1 0 3 3 3 1 2 3 2 1 2 2 2 1 1 0 3 0 0 1 3 0 3 3 2 1 2 0 1 0 1 2 0 1 0 1 1 1 3 0 1 0 1 2 1 1 0 0 0 1 2 0 0 0 1 1 2 1 3 2 2 3 3 3 2 2 3 1 1 1 3 2 0 0 1 2 2 3 3 2 0 0 1 1 1 0 0 2 2 0 1 2 1 2 1 1 1 2 2 3 2 2 0 1 2 0 2 0 1 3 1 2 3 3 0 0 3 0 0 0 1 0 1 2 0 2 2 1 1 1 0 0 1 0 0 0 2 0 2 1 1 3 0 0 1 2 2 2 3 1 1 0 0 3 0 0 3 1 2 2 1 2 1 0 3 2 2 1 2 1 1 1 1 0 2 0 0 2 2 1 0 2 0 1 0 2 1 1 0 1 0 1 1 1 2 2 1 2
        </DataArray>
      </PointData>
      <CellData>
      </CellData>
    </Piece>
  </UnstructuredGrid>
</VTKFile>
